% Model:              18feb2021_3DpreformWithCapillaryBreakup_jefferycoulter.mph
% Version:            COMSOL 5.6.0.280
% Date:               Apr 19 2021, 15:55
% Dimension:          3
% Nodes:              1600
% Expressions:        1
% Description:        Electrolyte potential
% Length unit:        mm
% X                       Y                        Z                        cd.phil (V)
-0.975                    -0.975                   0.35                     0.054656659025048675
-0.9249999999999999       -0.975                   0.35                     0.05431967447591824
-0.875                    -0.975                   0.35                     0.053624492119391874
-0.825                    -0.975                   0.35                     0.05269405370054715
-0.775                    -0.975                   0.35                     0.05124554615818777
-0.725                    -0.975                   0.35                     0.04950366478980816
-0.6749999999999999       -0.975                   0.35                     0.047413598054597744
-0.625                    -0.975                   0.35                     0.044866329473701304
-0.575                    -0.975                   0.35                     0.04194361481055066
-0.525                    -0.975                   0.35                     0.038578587184954924
-0.475                    -0.975                   0.35                     0.03482603381619556
-0.42499999999999993      -0.975                   0.35                     0.030589892619875724
-0.3749999999999999       -0.975                   0.35                     0.025889298227934215
-0.325                    -0.975                   0.35                     0.02089214807061583
-0.2749999999999999       -0.975                   0.35                     0.015323733672883484
-0.225                    -0.975                   0.35                     0.009592613813119924
-0.17499999999999993      -0.975                   0.35                     0.0033120944998177304
-0.12499999999999989      -0.975                   0.35                     -0.0030752409858099397
-0.07499999999999996      -0.975                   0.35                     -0.00969856890924008
-0.024999999999999915     -0.975                   0.35                     -0.01642314651538907
0.025000000000000022      -0.975                   0.35                     -0.023206545318648446
0.07500000000000008       -0.975                   0.35                     -0.029889942996252698
0.1250000000000001        -0.975                   0.35                     -0.03652536028169096
0.17500000000000016       -0.975                   0.35                     -0.04293474793535916
0.2250000000000002        -0.975                   0.35                     -0.04920287211669127
0.275                     -0.975                   0.35                     -0.05491079696301075
0.32500000000000007       -0.975                   0.35                     -0.06051160274344133
0.3750000000000001        -0.975                   0.35                     -0.06546765392255455
0.42500000000000016       -0.975                   0.35                     -0.07024004118556945
0.4750000000000002        -0.975                   0.35                     -0.0743598004284722
0.525                     -0.975                   0.35                     -0.07816450226535315
0.5750000000000001        -0.975                   0.35                     -0.08158395719506545
0.6250000000000001        -0.975                   0.35                     -0.08442190451655396
0.6750000000000002        -0.975                   0.35                     -0.08710751897390243
0.7250000000000002        -0.975                   0.35                     -0.08917197873039924
0.7750000000000001        -0.975                   0.35                     -0.09092947435162563
0.8250000000000001        -0.975                   0.35                     -0.09234323860016173
0.8750000000000001        -0.975                   0.35                     -0.09323728178195667
0.9250000000000002        -0.975                   0.35                     -0.09399075318064648
0.9750000000000002        -0.975                   0.35                     -0.09432006503849039
-0.975                    -0.9249999999999999      0.35                     0.05498824306700045
-0.9249999999999999       -0.9249999999999999      0.35                     0.05473675481231825
-0.875                    -0.9249999999999999      0.35                     0.054031277618912216
-0.825                    -0.9249999999999999      0.35                     0.052946768346820175
-0.775                    -0.9249999999999999      0.35                     0.0515496514892167
-0.725                    -0.9249999999999999      0.35                     0.04991107395320645
-0.6749999999999999       -0.9249999999999999      0.35                     0.04783893396995152
-0.625                    -0.9249999999999999      0.35                     0.045261842814758244
-0.575                    -0.9249999999999999      0.35                     0.04233985341544413
-0.525                    -0.9249999999999999      0.35                     0.039174707191965405
-0.475                    -0.9249999999999999      0.35                     0.03520130475392959
-0.42499999999999993      -0.9249999999999999      0.35                     0.030912169535550347
-0.3749999999999999       -0.9249999999999999      0.35                     0.026284367903963376
-0.325                    -0.9249999999999999      0.35                     0.021178057664387802
-0.2749999999999999       -0.9249999999999999      0.35                     0.015615668578673669
-0.225                    -0.9249999999999999      0.35                     0.009784566472990301
-0.17499999999999993      -0.9249999999999999      0.35                     0.0036144185384460476
-0.12499999999999989      -0.9249999999999999      0.35                     -0.002870605119605616
-0.07499999999999996      -0.9249999999999999      0.35                     -0.009577842536773197
-0.024999999999999915     -0.9249999999999999      0.35                     -0.016400675831802394
0.025000000000000022      -0.9249999999999999      0.35                     -0.02319182829989855
0.07500000000000008       -0.9249999999999999      0.35                     -0.03007366365371976
0.1250000000000001        -0.9249999999999999      0.35                     -0.036703024730149005
0.17500000000000016       -0.9249999999999999      0.35                     -0.04324076260179645
0.2250000000000002        -0.9249999999999999      0.35                     -0.0493888006177626
0.275                     -0.9249999999999999      0.35                     -0.055256174824076285
0.32500000000000007       -0.9249999999999999      0.35                     -0.06079617754644155
0.3750000000000001        -0.9249999999999999      0.35                     -0.0659460865710447
0.42500000000000016       -0.9249999999999999      0.35                     -0.0705748201430451
0.4750000000000002        -0.9249999999999999      0.35                     -0.07494227409352397
0.525                     -0.9249999999999999      0.35                     -0.07855337324858033
0.5750000000000001        -0.9249999999999999      0.35                     -0.08210120083736977
0.6250000000000001        -0.9249999999999999      0.35                     -0.0848129001600589
0.6750000000000002        -0.9249999999999999      0.35                     -0.08754691972833425
0.7250000000000002        -0.9249999999999999      0.35                     -0.0895319825294417
0.7750000000000001        -0.9249999999999999      0.35                     -0.09133274261512103
0.8250000000000001        -0.9249999999999999      0.35                     -0.09265346304373397
0.8750000000000001        -0.9249999999999999      0.35                     -0.09364155661936518
0.9250000000000002        -0.9249999999999999      0.35                     -0.09434381675537369
0.9750000000000002        -0.9249999999999999      0.35                     -0.09460979636967594
-0.975                    -0.875                   0.35                     0.05562513509360493
-0.9249999999999999       -0.875                   0.35                     0.055199359781389526
-0.875                    -0.875                   0.35                     0.054750720598780035
-0.825                    -0.875                   0.35                     0.053747074976587365
-0.775                    -0.875                   0.35                     0.052332429875786755
-0.725                    -0.875                   0.35                     0.05071106692048593
-0.6749999999999999       -0.875                   0.35                     0.048589653035853136
-0.625                    -0.875                   0.35                     0.04604516702764615
-0.575                    -0.875                   0.35                     0.04323630649982194
-0.525                    -0.875                   0.35                     0.039837541779551996
-0.475                    -0.875                   0.35                     0.03592600375449227
-0.42499999999999993      -0.875                   0.35                     0.03184098729581642
-0.3749999999999999       -0.875                   0.35                     0.02725130717839755
-0.325                    -0.875                   0.35                     0.02212389448937778
-0.2749999999999999       -0.875                   0.35                     0.016407825448139426
-0.225                    -0.875                   0.35                     0.010419831003250267
-0.17499999999999993      -0.875                   0.35                     0.004027844535801161
-0.12499999999999989      -0.875                   0.35                     -0.0024442646804650183
-0.07499999999999996      -0.875                   0.35                     -0.00941953971467636
-0.024999999999999915     -0.875                   0.35                     -0.01629077337856187
0.025000000000000022      -0.875                   0.35                     -0.023415448324908588
0.07500000000000008       -0.875                   0.35                     -0.03033439249791148
0.1250000000000001        -0.875                   0.35                     -0.03706829465455202
0.17500000000000016       -0.875                   0.35                     -0.04371756564097939
0.2250000000000002        -0.875                   0.35                     -0.05012459784006032
0.275                     -0.875                   0.35                     -0.05614235658511134
0.32500000000000007       -0.875                   0.35                     -0.06172479968674889
0.3750000000000001        -0.875                   0.35                     -0.06667702573546899
0.42500000000000016       -0.875                   0.35                     -0.07153095822544689
0.4750000000000002        -0.875                   0.35                     -0.07574407318399454
0.525                     -0.875                   0.35                     -0.07953443576550276
0.5750000000000001        -0.875                   0.35                     -0.08292437399745586
0.6250000000000001        -0.875                   0.35                     -0.08572216659993706
0.6750000000000002        -0.875                   0.35                     -0.08835228177198078
0.7250000000000002        -0.875                   0.35                     -0.09035438455341238
0.7750000000000001        -0.875                   0.35                     -0.092028186106139
0.8250000000000001        -0.875                   0.35                     -0.09339873266722659
0.8750000000000001        -0.875                   0.35                     -0.09435274957080265
0.9250000000000002        -0.875                   0.35                     -0.09495685035588017
0.9750000000000002        -0.875                   0.35                     -0.0953418826657849
-0.975                    -0.825                   0.35                     0.0566503857531097
-0.9249999999999999       -0.825                   0.35                     0.056337835826942385
-0.875                    -0.825                   0.35                     0.055647404011748086
-0.825                    -0.825                   0.35                     0.05474997061190914
-0.775                    -0.825                   0.35                     0.05352497903483286
-0.725                    -0.825                   0.35                     0.05192943565537364
-0.6749999999999999       -0.825                   0.35                     0.04974507582875704
-0.625                    -0.825                   0.35                     0.047323295596818776
-0.575                    -0.825                   0.35                     0.044536393546688376
-0.525                    -0.825                   0.35                     0.04119149963635095
-0.475                    -0.825                   0.35                     0.03750759211899571
-0.42499999999999993      -0.825                   0.35                     0.03324369795247213
-0.3749999999999999       -0.825                   0.35                     0.028399141344165983
-0.325                    -0.825                   0.35                     0.02320831068112898
-0.2749999999999999       -0.825                   0.35                     0.017542611221282537
-0.225                    -0.825                   0.35                     0.01142957747071676
-0.17499999999999993      -0.825                   0.35                     0.004965886289253705
-0.12499999999999989      -0.825                   0.35                     -0.001947235255997624
-0.07499999999999996      -0.825                   0.35                     -0.009021376171694935
-0.024999999999999915     -0.825                   0.35                     -0.016116781183134067
0.025000000000000022      -0.825                   0.35                     -0.023509968999711396
0.07500000000000008       -0.825                   0.35                     -0.030715230190434185
0.1250000000000001        -0.825                   0.35                     -0.03774045218488177
0.17500000000000016       -0.825                   0.35                     -0.04457013722098163
0.2250000000000002        -0.825                   0.35                     -0.051287889767657704
0.275                     -0.825                   0.35                     -0.05714063961526097
0.32500000000000007       -0.825                   0.35                     -0.06299935285037268
0.3750000000000001        -0.825                   0.35                     -0.06803644389017602
0.42500000000000016       -0.825                   0.35                     -0.07296575002135403
0.4750000000000002        -0.825                   0.35                     -0.07717951851258553
0.525                     -0.825                   0.35                     -0.08091993551738036
0.5750000000000001        -0.825                   0.35                     -0.08420057664019161
0.6250000000000001        -0.825                   0.35                     -0.08702018451029611
0.6750000000000002        -0.825                   0.35                     -0.08947827700584388
0.7250000000000002        -0.825                   0.35                     -0.09147828408080823
0.7750000000000001        -0.825                   0.35                     -0.09311954553152235
0.8250000000000001        -0.825                   0.35                     -0.09439025087080528
0.8750000000000001        -0.825                   0.35                     -0.09538292074609284
0.9250000000000002        -0.825                   0.35                     -0.09604228899598811
0.9750000000000002        -0.825                   0.35                     -0.09628779407107793
-0.975                    -0.775                   0.35                     0.05789344091376403
-0.9249999999999999       -0.775                   0.35                     0.057617499704957095
-0.875                    -0.775                   0.35                     0.05692946767252026
-0.825                    -0.775                   0.35                     0.05612934276311738
-0.775                    -0.775                   0.35                     0.054881098904550125
-0.725                    -0.775                   0.35                     0.05342711365227086
-0.6749999999999999       -0.775                   0.35                     0.05140671213064589
-0.625                    -0.775                   0.35                     0.04925543917027256
-0.575                    -0.775                   0.35                     0.046243477986693454
-0.525                    -0.775                   0.35                     0.04297763921553259
-0.475                    -0.775                   0.35                     0.03927519175385108
-0.42499999999999993      -0.775                   0.35                     0.0350880109517171
-0.3749999999999999       -0.775                   0.35                     0.030214405067373495
-0.325                    -0.775                   0.35                     0.024799895250219472
-0.2749999999999999       -0.775                   0.35                     0.01915888528834522
-0.225                    -0.775                   0.35                     0.012816661139993408
-0.17499999999999993      -0.775                   0.35                     0.005975987033872729
-0.12499999999999989      -0.775                   0.35                     -9.95835828099381E-4
-0.07499999999999996      -0.775                   0.35                     -0.008414717081311408
-0.024999999999999915     -0.775                   0.35                     -0.015942932772505757
0.025000000000000022      -0.775                   0.35                     -0.02359192091700618
0.07500000000000008       -0.775                   0.35                     -0.031322631941930267
0.1250000000000001        -0.775                   0.35                     -0.03883158456447194
0.17500000000000016       -0.775                   0.35                     -0.04562733117315283
0.2250000000000002        -0.775                   0.35                     -0.05261552848461158
0.275                     -0.775                   0.35                     -0.05895661411052632
0.32500000000000007       -0.775                   0.35                     -0.06468546998239351
0.3750000000000001        -0.775                   0.35                     -0.06989944565993944
0.42500000000000016       -0.775                   0.35                     -0.07461058878163206
0.4750000000000002        -0.775                   0.35                     -0.07885360661008742
0.525                     -0.775                   0.35                     -0.0826896330912384
0.5750000000000001        -0.775                   0.35                     -0.08596668518804407
0.6250000000000001        -0.775                   0.35                     -0.08868095526197384
0.6750000000000002        -0.775                   0.35                     -0.09115497748897716
0.7250000000000002        -0.775                   0.35                     -0.09298194424590552
0.7750000000000001        -0.775                   0.35                     -0.09459205791467094
0.8250000000000001        -0.775                   0.35                     -0.09591263923410806
0.8750000000000001        -0.775                   0.35                     -0.09671568520675153
0.9250000000000002        -0.775                   0.35                     -0.09734262502501471
0.9750000000000002        -0.775                   0.35                     -0.09756030675490387
-0.975                    -0.725                   0.35                     0.05952713562324641
-0.9249999999999999       -0.725                   0.35                     0.05925390806005229
-0.875                    -0.725                   0.35                     0.05869493480117367
-0.825                    -0.725                   0.35                     0.05792292741803789
-0.775                    -0.725                   0.35                     0.05675211082408977
-0.725                    -0.725                   0.35                     0.05515089003381192
-0.6749999999999999       -0.725                   0.35                     0.05339445010964313
-0.625                    -0.725                   0.35                     0.05111144270034209
-0.575                    -0.725                   0.35                     0.04834024754212124
-0.525                    -0.725                   0.35                     0.04541181476183556
-0.475                    -0.725                   0.35                     0.0415602194933932
-0.42499999999999993      -0.725                   0.35                     0.0374240112714533
-0.3749999999999999       -0.725                   0.35                     0.032778736175318755
-0.325                    -0.725                   0.35                     0.02720030564485206
-0.2749999999999999       -0.725                   0.35                     0.021255442988322056
-0.225                    -0.725                   0.35                     0.014829486530401058
-0.17499999999999993      -0.725                   0.35                     0.007556549108120489
-0.12499999999999989      -0.725                   0.35                     2.2798865991133108E-4
-0.07499999999999996      -0.725                   0.35                     -0.007644967234483667
-0.024999999999999915     -0.725                   0.35                     -0.015807790307113424
0.025000000000000022      -0.725                   0.35                     -0.023846690270709868
0.07500000000000008       -0.725                   0.35                     -0.03199305891244088
0.1250000000000001        -0.725                   0.35                     -0.03981050768561509
0.17500000000000016       -0.725                   0.35                     -0.047121374841027006
0.2250000000000002        -0.725                   0.35                     -0.054309354070794916
0.275                     -0.725                   0.35                     -0.060788566884933046
0.32500000000000007       -0.725                   0.35                     -0.06680176864875467
0.3750000000000001        -0.725                   0.35                     -0.07235509846593693
0.42500000000000016       -0.725                   0.35                     -0.07720551683837941
0.4750000000000002        -0.725                   0.35                     -0.08130263893928955
0.525                     -0.725                   0.35                     -0.08494194190550862
0.5750000000000001        -0.725                   0.35                     -0.08808786759144521
0.6250000000000001        -0.725                   0.35                     -0.09075069071197628
0.6750000000000002        -0.725                   0.35                     -0.0931517161513097
0.7250000000000002        -0.725                   0.35                     -0.09473354828062992
0.7750000000000001        -0.725                   0.35                     -0.09642822421506
0.8250000000000001        -0.725                   0.35                     -0.0975286014688467
0.8750000000000001        -0.725                   0.35                     -0.09836079369024536
0.9250000000000002        -0.725                   0.35                     -0.09898031541085382
0.9750000000000002        -0.725                   0.35                     -0.09918972306823658
-0.975                    -0.6749999999999999      0.35                     0.06134597374065035
-0.9249999999999999       -0.6749999999999999      0.35                     0.061137189263972325
-0.875                    -0.6749999999999999      0.35                     0.060686707592313344
-0.825                    -0.6749999999999999      0.35                     0.059872175734133434
-0.775                    -0.6749999999999999      0.35                     0.05877389208745822
-0.725                    -0.6749999999999999      0.35                     0.05739254039022509
-0.6749999999999999       -0.6749999999999999      0.35                     0.05576025221757767
-0.625                    -0.6749999999999999      0.35                     0.05376163196381826
-0.575                    -0.6749999999999999      0.35                     0.051119344951646606
-0.525                    -0.6749999999999999      0.35                     0.04802517140148202
-0.475                    -0.6749999999999999      0.35                     0.04448493046266586
-0.42499999999999993      -0.6749999999999999      0.35                     0.04038651314984129
-0.3749999999999999       -0.6749999999999999      0.35                     0.03548638688288866
-0.325                    -0.6749999999999999      0.35                     0.03016903890331823
-0.2749999999999999       -0.6749999999999999      0.35                     0.02378819806339358
-0.225                    -0.6749999999999999      0.35                     0.017045061007953704
-0.17499999999999993      -0.6749999999999999      0.35                     0.009769575684954604
-0.12499999999999989      -0.6749999999999999      0.35                     0.0014913608273761476
-0.07499999999999996      -0.6749999999999999      0.35                     -0.006712460528649137
-0.024999999999999915     -0.6749999999999999      0.35                     -0.01546504374380768
0.025000000000000022      -0.6749999999999999      0.35                     -0.024169255975878053
0.07500000000000008       -0.6749999999999999      0.35                     -0.03274245162401559
0.1250000000000001        -0.6749999999999999      0.35                     -0.04109354121637475
0.17500000000000016       -0.6749999999999999      0.35                     -0.04922434617383285
0.2250000000000002        -0.6749999999999999      0.35                     -0.05667864315131641
0.275                     -0.6749999999999999      0.35                     -0.06340424057913069
0.32500000000000007       -0.6749999999999999      0.35                     -0.06968032809578785
0.3750000000000001        -0.6749999999999999      0.35                     -0.07536182606027036
0.42500000000000016       -0.6749999999999999      0.35                     -0.08010251847600751
0.4750000000000002        -0.6749999999999999      0.35                     -0.0841228095675157
0.525                     -0.6749999999999999      0.35                     -0.08792171118943266
0.5750000000000001        -0.6749999999999999      0.35                     -0.09080029908720247
0.6250000000000001        -0.6749999999999999      0.35                     -0.09340878915020814
0.6750000000000002        -0.6749999999999999      0.35                     -0.09534042153603794
0.7250000000000002        -0.6749999999999999      0.35                     -0.09711027119065585
0.7750000000000001        -0.6749999999999999      0.35                     -0.09857749508214006
0.8250000000000001        -0.6749999999999999      0.35                     -0.09960701879870781
0.8750000000000001        -0.6749999999999999      0.35                     -0.10038938492900609
0.9250000000000002        -0.6749999999999999      0.35                     -0.10089383258676421
0.9750000000000002        -0.6749999999999999      0.35                     -0.101023458336049
-0.975                    -0.625                   0.35                     0.06344582646489522
-0.9249999999999999       -0.625                   0.35                     0.06328160840338895
-0.875                    -0.625                   0.35                     0.06283973292814546
-0.825                    -0.625                   0.35                     0.062213742419038404
-0.775                    -0.625                   0.35                     0.06126160902098446
-0.725                    -0.625                   0.35                     0.06008191899046364
-0.6749999999999999       -0.625                   0.35                     0.0585838008501678
-0.625                    -0.625                   0.35                     0.056520671917087255
-0.575                    -0.625                   0.35                     0.05419112023022728
-0.525                    -0.625                   0.35                     0.051424559303044945
-0.475                    -0.625                   0.35                     0.047868005876763875
-0.42499999999999993      -0.625                   0.35                     0.0439435429989628
-0.3749999999999999       -0.625                   0.35                     0.03897824707515971
-0.325                    -0.625                   0.35                     0.03360987894171749
-0.2749999999999999       -0.625                   0.35                     0.027011386286269208
-0.225                    -0.625                   0.35                     0.01975875917274403
-0.17499999999999993      -0.625                   0.35                     0.012082046627161662
-0.12499999999999989      -0.625                   0.35                     0.003369534183983722
-0.07499999999999996      -0.625                   0.35                     -0.005655646267809719
-0.024999999999999915     -0.625                   0.35                     -0.01493634966474143
0.025000000000000022      -0.625                   0.35                     -0.024575613354476507
0.07500000000000008       -0.625                   0.35                     -0.03409795133771102
0.1250000000000001        -0.625                   0.35                     -0.042902107848339574
0.17500000000000016       -0.625                   0.35                     -0.05173355811329772
0.2250000000000002        -0.625                   0.35                     -0.05964970996230738